# vtk DataFile Version 3.0
Lime grid
ASCII
DATASET UNSTRUCTURED_GRID
POINTS 4000 float
3.199592e+11 7.990760e+11 4.040398e+10
-1.641050e+13 -4.193828e+13 2.594459e+13
4.057630e+10 8.662129e+10 -1.304722e+10
-1.361235e+11 8.422008e+11 4.066382e+11
1.712305e+13 -1.118308e+13 4.215400e+12
1.171571e+12 1.310885e+12 -9.645682e+11
-1.986894e+12 -6.784355e+12 -2.976117e+12
2.897230e+12 -3.605945e+12 1.921241e+12
-8.712558e+10 -1.242397e+11 1.212705e+10
3.236957e+11 -1.420639e+13 6.666014e+12
-5.442293e+13 -4.531029e+13 -2.209620e+13
-2.816190e+11 1.335219e+10 1.735253e+10
8.147653e+12 -1.736453e+13 -7.201138e+12
-5.437880e+10 1.748324e+12 2.735614e+11
7.141582e+10 -9.065139e+10 4.736245e+10
6.889039e+09 6.889644e+10 -1.787596e+09
2.113638e+12 1.280074e+12 1.769645e+12
-4.143214e+12 1.354450e+13 8.580680e+11
-1.377894e+12 5.104443e+12 -8.207149e+09
-1.289446e+11 3.985145e+13 -4.717665e+12
-6.450351e+12 2.484867e+12 -5.982912e+12
1.627699e+13 -4.409012e+12 -4.053592e+12
-2.125276e+12 -1.060440e+13 -2.497941e+12
1.698167e+13 1.226893e+13 1.530689e+13
5.403938e+13 -3.431424e+13 3.647771e+12
-4.787167e+13 2.493230e+13 1.152177e+13
1.581663e+11 4.984943e+11 1.654598e+11
2.554062e+11 -7.786944e+11 -9.789762e+11
2.118775e+12 -1.078684e+13 2.255928e+12
-9.831983e+11 2.325841e+12 1.449106e+11
5.818985e+12 2.888294e+11 -1.227641e+12
-2.241139e+12 8.272665e+11 3.347654e+11
-9.644429e+11 1.273790e+12 -5.614424e+11
4.113543e+11 2.772989e+12 -6.666851e+11
-1.037714e+12 1.704882e+12 2.687131e+11
3.285152e+12 2.351716e+13 3.623371e+12
-5.140252e+13 7.882479e+12 1.224622e+13
-3.582741e+13 1.859606e+12 9.807060e+12
-4.657378e+12 -4.524808e+12 2.706941e+11
7.933887e+12 -7.992164e+12 9.018002e+11
2.224041e+12 5.548037e+12 2.167054e+12
-1.304679e+12 -2.402351e+13 1.764145e+13
-1.254696e+13 5.642159e+13 -7.481155e+11
5.477152e+12 -4.815234e+12 4.078457e+12
-2.645071e+13 -3.450226e+13 -1.766796e+12
5.427360e+11 3.169964e+12 -1.613479e+12
-3.818100e+11 1.012292e+12 4.889922e+11
5.072986e+13 -4.536276e+12 -1.275724e+12
-6.967202e+10 2.824928e+10 2.008460e+10
-5.126194e+10 -6.139464e+09 -2.848535e+10
3.188942e+13 -3.161258e+13 2.342069e+13
-5.909555e+12 9.487507e+12 1.161644e+13
-1.465425e+12 3.630822e+11 6.037199e+10
2.151541e+13 6.271373e+13 -2.015279e+13
-1.194375e+12 -2.024076e+13 -1.545474e+13
6.574762e+12 -2.984390e+12 3.655225e+12
2.427258e+13 -2.496593e+13 -2.483980e+12
3.079678e+11 3.858229e+11 4.672653e+10
-2.925018e+13 2.748689e+11 -9.392691e+12
-9.415450e+10 5.346049e+10 2.656053e+10
-2.757163e+11 7.364334e+11 -3.535951e+11
4.663970e+13 4.365970e+13 1.737652e+13
1.404320e+11 9.298556e+10 2.770097e+10
2.695974e+13 -1.455629e+13 2.273294e+12
5.545671e+12 -7.677964e+12 -5.881837e+11
1.754726e+13 -5.390791e+13 -1.502863e+13
2.456000e+13 -1.642115e+13 1.344624e+13
-5.460132e+12 -4.813519e+12 -4.291890e+12
-4.514288e+12 2.033755e+12 1.070716e+11
-8.700929e+12 8.137023e+12 5.931533e+12
-2.011636e+11 8.855538e+11 8.712861e+11
-2.854906e+12 3.378747e+13 -3.291173e+11
7.728427e+11 2.126132e+12 1.541109e+12
5.888314e+12 -4.693766e+13 2.001164e+13
-6.776850e+12 -9.898886e+12 5.596633e+11
8.714273e+12 -5.983502e+11 6.060282e+10
-7.553651e+11 -1.464083e+11 2.303608e+11
5.016806e+12 -4.501516e+12 2.188737e+12
-1.152392e+13 -8.152900e+11 2.461979e+12
1.635834e+13 3.973720e+13 8.125300e+12
1.931418e+12 -4.594465e+12 3.954202e+12
1.394983e+12 3.779382e+12 2.697892e+12
-1.294755e+13 -1.257728e+13 -1.368037e+13
-2.174628e+13 -8.450285e+12 -2.167887e+13
3.829002e+12 1.093465e+10 3.060395e+12
-2.357643e+12 -5.227844e+12 6.332666e+11
-7.780275e+12 -3.665800e+13 -1.008520e+13
-1.154785e+13 -5.522676e+12 -2.428634e+12
5.161281e+12 1.257629e+13 -3.258595e+13
3.471176e+13 3.794535e+13 -3.841344e+13
-3.788014e+13 -3.361835e+13 2.100063e+13
3.799443e+12 -4.432762e+11 5.576972e+11
-9.627929e+10 1.259218e+12 -5.700326e+10
-1.443092e+11 1.826060e+11 7.885471e+10
3.689569e+09 1.753991e+11 9.204326e+10
6.589119e+12 -9.043837e+11 5.521399e+12
3.793412e+13 -3.735786e+13 2.669419e+12
1.891694e+11 -2.646541e+10 1.834755e+10
2.297798e+10 -6.796226e+10 1.596318e+10
-2.213300e+13 5.877769e+12 2.689421e+12
4.723124e+12 -8.994330e+12 -1.221096e+11
-1.023267e+12 -8.933595e+11 3.017504e+11
-1.304170e+13 2.316464e+12 5.613934e+12
-5.068288e+13 3.093066e+13 1.436500e+12
8.726713e+11 -1.692202e+11 9.944816e+11
-3.009965e+12 -4.681555e+11 -2.302142e+12
2.050720e+13 1.595608e+13 -3.406078e+13
5.146036e+12 5.473012e+12 2.117998e+12
2.438852e+12 1.794963e+13 -9.245278e+12
-1.837766e+12 1.482066e+12 -5.995075e+11
8.537628e+11 1.623544e+12 1.454485e+11
4.521849e+11 6.616450e+11 -3.721629e+11
-3.431423e+13 3.159615e+13 -2.208618e+13
-6.824152e+12 -1.732459e+13 -6.146295e+12
2.214847e+13 2.294009e+12 -2.092746e+12
-4.823682e+10 5.037810e+09 6.306470e+09
-1.569699e+13 -2.547150e+12 1.412082e+13
-1.805872e+13 -3.162036e+12 -1.911168e+13
-2.431393e+12 -1.190039e+12 -1.693077e+12
-3.240998e+11 6.074193e+11 -6.647783e+10
-1.613923e+11 3.326717e+11 5.371316e+10
2.236719e+12 -2.346432e+12 -9.294488e+11
-2.453264e+12 -2.353493e+12 1.311371e+12
-2.526358e+12 -6.615415e+12 1.137035e+12
-2.996649e+13 1.511711e+13 8.428709e+12
1.071461e+13 -5.886689e+13 2.542596e+13
1.103758e+13 -8.115818e+12 -7.811801e+12
-4.605329e+13 2.493726e+13 -6.750195e+12
2.029867e+13 -4.589441e+13 -6.883012e+12
-4.055273e+12 -2.031257e+12 4.416282e+12
-1.898648e+12 -3.029839e+11 -6.506265e+11
-4.541513e+10 -1.519284e+12 3.046748e+11
-9.715394e+12 -2.748384e+13 -6.688579e+12
-1.779899e+13 1.814759e+12 8.000140e+12
-1.992028e+13 1.924006e+13 1.437613e+13
3.727779e+13 -1.816743e+13 1.539047e+13
5.428423e+13 -4.818541e+12 -1.249349e+13
1.997498e+12 8.392264e+11 9.072038e+11
6.616670e+11 -3.215128e+12 -1.451154e+12
-2.057294e+13 1.471926e+13 7.579007e+12
-2.281866e+12 2.843707e+12 -1.597317e+12
2.543603e+13 2.238611e+13 -1.666633e+13
-1.514424e+13 8.396745e+12 3.880362e+13
5.002555e+11 -4.282749e+11 -3.097128e+11
-2.773049e+13 2.512157e+13 2.238578e+13
-3.502294e+12 9.446003e+11 -6.132476e+11
1.218427e+13 2.110153e+13 -8.938968e+12
-2.069809e+12 3.462872e+12 2.490102e+12
-1.655420e+12 -9.499911e+11 1.094563e+12
6.214250e+12 3.693957e+12 2.751339e+12
1.999725e+12 -6.207677e+12 1.588298e+11
-8.148024e+12 -6.894502e+12 6.579065e+11
-2.516428e+12 3.649898e+12 -2.292956e+12
-8.194995e+11 -2.994527e+10 1.877916e+11
-4.452226e+13 -7.349795e+12 6.677113e+12
-6.586668e+11 -1.822438e+12 -7.225645e+10
-1.079637e+13 1.545022e+13 -1.604865e+12
7.379792e+10 1.520471e+11 2.410125e+10
2.714895e+12 -1.302042e+13 -1.339128e+13
-5.957887e+13 4.168290e+12 2.608925e+13
3.436741e+13 -5.966634e+12 -2.606864e+12
-1.551014e+13 -1.603816e+13 -5.075371e+13
-2.520735e+11 -3.050328e+11 7.145714e+11
3.076341e+11 -6.152468e+11 -4.903863e+11
-1.074570e+13 3.009857e+12 -3.374141e+13
3.699086e+12 -3.114153e+12 2.020685e+11
-4.605146e+10 1.800395e+11 1.003373e+11
-5.685153e+13 -1.830061e+13 7.119914e+12
-7.004275e+12 -1.126871e+13 -1.387092e+13
8.291402e+10 -4.044455e+11 7.088746e+10
3.215019e+11 -5.037834e+11 6.504396e+10
4.015388e+12 -1.159772e+12 -6.017211e+12
1.519328e+12 8.758446e+10 -6.032264e+11
-1.502923e+12 1.963282e+12 -1.213770e+11
8.564904e+12 5.708508e+12 -6.252190e+11
-1.076190e+13 -2.469107e+13 5.060345e+12
1.005113e+11 9.539084e+10 -1.078676e+11
-2.552546e+12 1.498540e+13 6.757865e+12
4.182141e+13 -4.614254e+13 -8.388496e+12
-2.760125e+11 8.651370e+11 -7.739915e+09
7.936782e+12 3.631389e+13 1.008208e+13
6.998284e+12 1.122508e+13 5.368820e+12
-2.700691e+10 -9.490299e+09 1.859902e+10
-6.086156e+11 7.574005e+10 1.158065e+11
-5.331069e+13 -3.866520e+13 -1.002879e+13
9.320231e+10 -1.914748e+12 7.728353e+11
-8.811907e+12 1.186113e+13 -8.440948e+12
-6.104114e+10 2.126522e+12 -2.251441e+12
-1.917503e+12 -9.294245e+12 5.003912e+12
-3.865307e+12 -1.417718e+13 9.947163e+12
4.830755e+11 6.235972e+11 1.333927e+11
3.322839e+12 6.550882e+12 -2.919610e+12
3.687525e+12 -9.174997e+11 2.193765e+12
9.466598e+10 1.287586e+12 8.220544e+11
1.230501e+13 -2.345142e+13 2.529167e+12
-1.648361e+13 -4.717222e+13 7.699570e+12
-3.750386e+13 -4.592667e+13 -7.516493e+12
1.737130e+10 4.273168e+10 2.946871e+10
3.371540e+11 -1.413772e+11 -8.637569e+10
7.841700e+10 4.114200e+12 3.430723e+12
1.516135e+10 3.904010e+11 -6.826236e+10
-1.480021e+11 -3.251217e+11 -1.042039e+11
-1.530585e+11 -6.061771e+11 5.094932e+11
-4.722566e+11 -1.026500e+13 2.564745e+12
-5.773803e+12 -4.272653e+12 -7.206089e+11
-1.088820e+12 3.430839e+12 2.614369e+10
-1.148640e+12 -1.824467e+12 -2.653826e+11
2.552026e+13 1.783398e+13 3.584964e+13
-3.961369e+13 1.250504e+13 -3.278194e+13
3.123575e+13 5.722514e+13 1.794900e+13
-2.607405e+12 5.518721e+12 -4.762270e+12
-6.043915e+11 -1.775177e+11 -8.664655e+10
-7.960694e+12 -2.798250e+12 4.675331e+10
2.464935e+12 1.559024e+12 9.559939e+11
-1.342297e+13 -7.149849e+12 6.156575e+12
6.072276e+10 -1.474431e+10 1.410112e+11
-1.315811e+12 1.189879e+12 -5.837692e+12
2.281417e+13 2.136144e+13 -3.225066e+12
4.396525e+11 -2.540221e+12 9.173039e+11
3.295310e+10 -2.261931e+12 -1.239838e+12
5.357675e+11 1.482112e+13 -1.298031e+13
-3.759150e+13 -2.592912e+13 -8.100925e+12
-7.673579e+11 4.222252e+12 -5.528458e+11
2.251927e+11 1.139633e+12 -4.392180e+11
-1.521411e+11 -5.237577e+10 -1.207663e+11
-5.412231e+11 1.869481e+11 -1.163901e+11
3.690123e+11 5.244951e+11 -9.141539e+10
-4.856791e+12 7.259072e+12 3.251834e+12
-4.533338e+11 5.137595e+12 -4.249061e+12
-3.585767e+13 -3.143815e+13 -2.627039e+13
7.094569e+10 9.024894e+10 -2.029680e+10
-1.123285e+10 -5.574525e+10 -1.036155e+10
4.597936e+10 5.030465e+10 3.978665e+10
2.810328e+13 6.643449e+13 7.515028e+12
1.461492e+13 -8.872252e+12 2.156506e+13
-3.586358e+11 1.642194e+11 6.897625e+10
-1.227042e+12 1.585174e+12 -9.703279e+11
-1.910583e+11 7.197738e+11 -1.013669e+11
-2.176760e+12 -9.084139e+12 -8.260820e+11
-1.035819e+13 -1.949160e+13 2.316507e+12
2.515809e+12 -1.120435e+12 3.297889e+11
-1.281582e+12 -1.693440e+12 6.548864e+11
4.241817e+12 1.230860e+12 6.387051e+10
-1.513094e+11 -4.787848e+10 -6.408734e+10
[...]
POINT_DATA 4000
SCALARS H2_density float 1
LOOKUP_TABLE default
1.604000e+18
1.228500e+04
5.347500e+15
2.251250e-07
2.380250e+13
3.232500e-06
1.659750e+13
1.726000e+02
6.095000e+18
5.607500e+09
4.870000e+08
1.091000e+19
2.750000e+12
1.969000e+16
8.312500e-10
5.537500e+20
1.372000e-05
4.057500e+14
1.440750e+16
1.041000e+12
6.247500e-03
4.377500e+13
1.951000e+14
1.603750e+03
2.398750e+10
5.305000e+10
1.287250e-05
8.885000e-07
1.951000e+14
1.048250e+17
1.432000e+15
2.787500e+16
3.060000e+05
4.320000e+14
1.969000e+16
2.136750e+13
4.825000e+10
6.165000e+11
1.285750e+16
1.402500e+15
3.012500e+09
3.550000e+00
7.990000e+10
2.677500e+05
9.892500e+11
4.082500e+05
7.545000e-07
2.750000e+11
3.905000e-11
3.905000e-11
8.700000e+05
1.351500e-02
3.775000e+17
1.305000e+09
3.235000e-01
6.012500e+07
5.300000e+12
8.075000e+17
1.395750e+12
1.791750e-10
2.180750e-07
5.830000e+09
8.657500e+05
8.535000e+12
1.764250e+15
2.061750e+10
1.026250e+11
2.677500e+05
1.440750e+16
3.042500e+08
8.885000e-07
6.015000e+12
1.210500e-05
1.246750e+10
8.137500e+14
4.830000e+15
3.465000e+02
3.012500e+09
1.693750e+14
4.562500e+11
2.627500e-03
8.995000e-04
8.695000e-02
1.096250e-01
1.067500e-03
7.322500e+15
3.847500e+11
1.693750e+14
1.067250e-01
6.905000e-01
5.885000e+09
9.117500e+15
8.337500e+17
3.457500e-09
3.457500e-09
3.250000e-03
1.813500e+11
5.285000e+18
3.780000e-11
5.247500e+13
1.980250e+15
8.440000e+15
9.485000e+10
5.332500e+10
8.885000e-07
6.650000e-04
1.786250e-01
2.309750e+14
3.930000e+07
1.182750e+15
2.159750e+17
2.251250e-07
8.700000e+05
6.067500e+12
5.247500e+13
5.012500e+09
3.565000e-02
5.725000e-02
1.312750e-05
5.935000e+17
1.584750e+16
9.957500e+14
1.574750e+10
1.567000e+15
9.965000e+11
2.193500e+06
4.150000e+03
1.204500e+11
1.834500e+11
2.907500e-03
7.307500e+01
8.440000e+15
4.747500e+12
2.182250e+09
2.296000e+07
5.715000e+10
3.150000e+10
1.517000e+07
2.705000e+08
4.012500e+12
4.082500e+05
1.214500e+07
1.737750e-01
2.017250e-07
1.507750e+04
9.117500e+15
8.775000e+11
7.455000e-04
3.425000e-06
1.659750e+13
1.440750e+16
1.764250e+15
6.650000e-04
3.685000e+08
4.320000e+11
3.775000e+17
1.175000e+14
1.023750e+18
2.446000e-02
2.193500e+06
5.300000e+12
2.502500e-01
2.251250e-07
2.251250e-07
1.067250e-01
1.285750e+16
3.457500e-09
3.490000e+10
2.377500e-02
6.030000e+16
5.935000e+17
3.250000e-03
2.817500e+03
1.312000e+17
1.764250e+15
7.925000e+12
8.312500e-10
5.607500e+09
2.324750e+10
1.166000e+18
6.165000e+11
9.485000e+10
1.397750e-12
2.335000e+16
1.039750e+10
3.207500e-05
1.747750e+05
1.372000e-05
2.647500e+07
2.053000e+03
8.150000e+15
1.659750e+13
1.425250e-03
8.885000e-07
1.805750e+13
1.834500e+11
3.490000e+10
7.660000e-12
2.665000e-01
1.067500e-03
1.584000e+17
6.717500e-08
2.251250e-07
1.951000e+14
3.427500e+15
4.810000e+16
4.817500e+16
2.615000e-01
3.442500e-01
3.795000e+09
3.132500e-03
3.077500e+17
4.830000e+15
2.114000e+05
1.578000e+12
1.849250e-10
1.067500e-03
6.662500e+12
1.517000e+07
2.727500e-03
3.170000e-02
2.937500e+11
9.117500e+15
9.197500e-04
3.457500e-09
5.745000e+06
1.439750e+17
3.282500e+12
2.805000e-03
9.347500e+01
4.457500e+15
6.665000e+06
3.905000e-11
4.270000e+09
5.685000e-02
6.030000e+16
3.232500e-06
1.439750e+17
1.402500e+15
5.247500e+13
2.787500e+16
4.320000e+14
4.810000e+16
8.312500e-10
3.132500e-03
7.590000e+12
3.457500e-09
1.972000e-07
4.012500e+12
6.387500e+14
4.127500e+12
8.012500e+16
1.372000e-05
2.407750e+14
1.432000e+15
2.885000e+12
7.407500e+02
1.250250e+13
2.444500e+15
5.380000e-08
3.995000e+07
8.440000e+15
1.335500e+13
6.600000e-03
2.304250e-02
2.800000e+18
7.515000e+13
3.830000e-02
1.067250e-01
3.425000e-06
6.997500e+12
7.942500e-10
8.075000e+17
5.830000e+09
9.347500e+01
2.017500e-03
3.495000e+10
9.207500e-02
5.712500e-08
4.320000e+14
2.136750e+13
1.067500e-03
2.309750e+14
3.400000e+15
3.690000e+13
9.197500e-04
3.400000e+15
7.322500e+15
1.671000e+09
2.083000e+16
1.456000e+16
9.902500e-04
6.215000e+00
1.992750e-02
1.958000e+06
2.251250e-07
2.705000e+08
1.166000e+18
7.660000e-12
4.320000e+14
9.272500e+13
7.607500e+14
6.662500e+12
3.302500e+15
8.050000e-01
1.958000e+06
8.885000e-07
6.600000e-03
8.190000e-02
1.805750e+13
2.055500e+03
1.464500e+06
3.010000e+11
8.365000e+09
6.537500e+13
1.304000e-08
1.691500e+14
1.372000e-05
8.365000e+09
7.350000e-05
2.347750e+12
6.195000e+05
2.083000e+16
1.432000e+15
3.170000e-02
9.117500e+15
3.645000e-01
1.534500e+12
7.660000e-12
1.149750e+17
1.250250e+13
3.427500e+15
1.423250e-08
3.095000e+10
1.237000e+11
3.480000e-03
2.522500e-01
4.295000e+16
2.239500e+18
5.007500e+07
4.507500e+12
2.180750e-07
6.877500e+14
9.667500e+12
3.465000e+02
1.016500e+15
4.030000e+18
2.017500e-03
5.892500e-01
1.688500e+14
2.239750e-02
5.460000e+04
3.520000e+07
3.852500e+17
4.780000e+15
2.444500e+15
3.077500e+10
5.965000e-01
1.168000e-02
7.585000e+11
6.387500e+14
2.426000e+09
5.970000e+17
7.422500e+10
8.885000e-07
9.667500e+12
1.168000e-02
3.817500e-11
3.400000e+15
1.067500e-03
1.980250e+15
9.892500e+11
2.251250e-07
4.267500e+13
5.715000e+10
4.175000e+16
7.907500e-10
2.296750e+16
3.250000e-03
2.253250e+00
3.802500e+03
8.885000e-07
8.885000e-07
1.310250e+17
9.117500e+15
3.250000e-03
2.347750e+12
6.600000e-03
1.067500e-03
1.241000e+14
2.017500e-03
1.492250e+14
7.322500e+15
1.693750e+14
2.937500e+11
1.423250e-08
2.309750e+14
6.067500e+12
1.423250e-08
5.712500e-08
1.039750e+10
2.782500e+11
2.452000e+16
3.427500e+15
8.935000e+13
4.625000e+10
7.530000e+03
1.451750e+14
7.725000e+11
7.600000e+13
8.885000e-07
4.680000e-01
9.142500e+14
3.385000e+05
3.130000e+18
9.300000e+06
7.002500e+12
6.905000e+15
4.700000e+15
4.025000e+11
1.425250e-03
8.885000e-07
5.122500e-01
1.546750e+11
2.426000e+09
4.830000e+15
1.425250e-03
3.127500e-06
8.312500e-10
4.817500e+16
1.349000e-08
1.081250e+10
4.837500e+19
2.335000e+16
2.251250e-07
8.312500e-10
4.875000e+10
2.772500e+19
5.305000e+10
4.312500e+00
7.455000e-04
1.285750e+16
1.468250e+17
2.083000e+18
7.600000e+13
1.683500e+20
3.967500e+08
3.795000e+09
4.547500e+06
1.423250e-08
1.067500e-03
1.849250e-10
8.700000e+05
9.825000e-02
2.402500e-01
0.000000e+00
4.282500e+08
4.082500e+05
1.285750e+16
2.159750e+17
1.237000e+11
3.260000e+12
4.962500e+07
6.767500e+09
1.744000e+21
6.925000e-03
1.849250e-10
7.695000e+00
1.337750e+01
8.702500e+00
0.000000e+00
3.210000e-01
3.762500e+12
3.232500e-06
5.077500e+03
6.905000e-01
2.332250e+13
3.610000e+11
6.837500e+09
1.775500e+13
1.262750e+13
1.553250e+10
2.672500e+09
1.849250e-10
1.447500e-05
9.380000e+09
8.935000e+13
1.423250e-08
2.104000e-01
1.849250e-10
1.685000e-01
1.440750e+16
2.083000e+16
2.952500e+02
7.090000e-01
1.132500e+12
6.600000e-03
1.397750e-12
8.365000e+09
1.085750e+08
8.535000e+12
6.087500e+16
4.117500e+12
1.507750e+04
7.737500e-10
6.012500e+07
1.351500e-02
4.837500e+19
2.048500e+01
3.690000e+13
6.065000e+11
1.574750e+10
3.047500e+13
6.975000e+09
1.305000e+09
9.957500e+14
4.700000e+15
1.591500e-05
6.492500e+11
2.907500e-03
4.817500e+16
3.427500e+15
9.455000e-01
1.395750e+12
1.775500e+13
1.775250e+02
7.590000e+12
1.335500e+13
2.697500e+02
1.312000e+17
7.620000e+09
2.952500e+02
3.525000e+10
2.159750e+17
3.520000e+07
5.312500e+04
1.387250e+17
2.136750e+13
8.995000e-04
1.959250e+11
1.849250e-10
8.702500e+00
4.437500e+19
7.590000e+12
7.515000e+13
1.451750e+14
2.452000e+16
2.335000e+16
2.697500e+02
4.282500e+08
1.317500e-08
3.967500e+20
4.757500e+01
7.350000e-01
3.425000e-06
8.312500e-10
3.457500e-09
1.372000e-05
2.347750e+12
5.620000e-02
3.802500e+03
4.190000e+11
1.440750e+16
1.797750e+08
5.512500e-02
5.725000e-02
7.660000e-12
3.127500e-06
3.012500e+09
5.712500e-08
8.150000e+15
3.985000e+06
3.852500e+17
6.030000e+06
6.797500e-03
7.210000e+04
3.732500e-02
8.935000e+13
1.621000e+07
2.952500e-01
4.190000e+11
3.047500e+13
1.023750e+19
4.695000e-01
3.427500e+15
3.302500e+15
2.444500e+15
1.822000e-10
1.351500e-02
1.177500e+04
1.026250e+11
6.332500e+10
3.882500e+14
1.016500e+15
9.277500e-02
6.650000e-04
2.444500e+15
6.065000e+11
2.722500e+15
5.285000e+18
3.905000e-11
5.065000e+12
3.995000e+07
1.312000e+17
6.600000e-03
1.447500e-05
7.725000e+11
3.775000e+17
5.617500e+11
4.747500e+12
1.351500e-02
5.057500e-08
5.712500e-08
1.397750e-12
3.397500e-09
1.633500e+12
8.702500e+00
1.250250e+13
8.012500e+16
1.252500e+11
9.142500e+14
1.067500e-03
3.142500e+15
8.437500e+08
1.377000e+14
1.370250e+05
9.300000e+06
1.039750e+10
4.547500e+06
2.937500e+11
1.849250e-10
7.002500e+18
2.017250e-07
1.849250e-10
3.275000e-01
2.349750e+20
3.200000e+19
4.810000e+16
1.451750e+14
6.387500e+14
6.877500e+14
5.122500e-01
6.012500e+07
6.662500e+13
7.500000e+16
1.540500e-01
2.602500e+13
3.250000e-03
4.785000e+14
9.692500e+12
1.328500e-03
3.130000e+18
3.215000e+17
1.372000e-05
3.457500e-09
4.320000e+14
3.260000e+12
3.820000e-02
2.055500e+03
6.975000e+09
1.574500e+13
1.067500e-03
1.487000e+02
3.850000e-02
2.108000e+12
4.312500e+00
8.312500e-10
1.331000e+01
4.810000e+16
1.958000e+06
1.335500e+13
1.941000e+12
1.553250e+10
1.315750e+19
1.834500e+11
7.725000e+11
3.905000e-11
3.662500e+11
1.468250e+17
4.305000e+15
1.085750e+08
2.937500e+11
1.225750e-01
9.197500e-04
1.764250e+15
8.455000e+02
7.837500e-10
5.712500e-08
7.620000e+09
2.251250e-07
5.685000e-02
2.072250e+10
3.847500e+11
2.296250e+18
4.175000e+16
8.075000e+17
5.712500e-08
8.885000e-07
8.312500e-10
1.041000e+12
8.100000e-10
3.100000e-01
2.278250e+14
1.331000e+01
1.616250e+10
2.722500e+15
5.437500e+08
1.397750e-12
1.310250e+17
1.262750e+13
7.002500e+12
8.935000e+13
1.237000e+11
3.425000e-06
6.877500e+14
1.953250e+13
7.940000e+10
3.645000e+00
1.578000e+12
8.232500e+18
2.130000e-07
8.747500e+05
1.553250e+10
1.345750e+13
1.879500e+02
1.305250e+02
2.303250e+13
3.450000e-01
2.985000e+15
1.423250e-08
8.232500e+18
1.633500e+12
8.767500e-02
3.905000e-11
5.965000e-01
7.600000e+13
7.990000e+10
5.065000e+12
8.670000e+11
3.802500e+03
6.030000e+16
1.775500e+13
1.616250e+10
5.312500e+16
3.017500e+17
1.423250e-08
1.250250e+13
1.149750e+17
1.351500e-02
1.451750e+14
6.662500e+12
6.637500e-08
5.122500e-01
1.578000e+12
1.081250e+10
3.260000e+12
1.440750e+16
8.437500e+08
1.849250e-10
2.296750e+16
1.370250e+05
5.305000e+10
5.712500e-08
5.380000e-08
1.572500e+12
1.423250e-08
4.327500e+09
1.953250e+13
1.544500e+13
3.282500e+12
5.305000e+10
8.337500e+17
9.272500e+13
1.574500e+13
2.437000e-02
2.444500e+15
2.280000e+15
2.280000e+15
3.697500e+14
2.750000e+12
1.535250e+17
3.400000e+15
1.423250e-08
4.282500e+08
8.982500e+05
1.175000e+14
1.616250e+10
1.150000e+05
2.452000e+16
3.212500e+16
3.645000e-01
2.750000e+12
5.137500e+02
1.970500e+10
1.237000e+11
1.124250e+00
3.457500e-09
1.351500e-02
2.860000e-06
2.017500e-03
3.250000e-03
1.432000e+15
1.423250e-08
2.061750e+10
1.683500e+20
6.650000e-04
3.250000e-03
3.142500e+15
2.398750e+10
3.035000e+14
9.872500e+04
1.029000e+14
6.877500e+14
1.162500e+02
8.312500e-10
5.825000e+06
2.817500e+03
9.117500e+15
1.128750e+09
6.975000e+09
6.090000e-01
1.423250e-08
4.785000e+14
1.221500e+06
5.312500e+04
1.805750e+13
1.440750e+16
4.700000e+15
3.985000e+06
8.702500e+00
3.930000e+07
1.168000e-02
6.600000e-03
9.685000e+17
3.905000e-11
2.907500e-03
6.600000e-03
1.273500e-02
1.440750e+16
3.732500e-02
6.910000e-03
3.985000e+06
3.302500e+15
8.535000e+12
4.127500e+12
9.752500e+10
1.578000e+12
6.527500e-03
1.139750e-05
2.585000e+12
5.892500e-01
1.372000e-05
3.430000e+16
3.565000e-02
3.610000e+11
3.430000e+16
4.057500e+14
3.955000e+02
5.460000e+04
1.347000e+12
1.783250e+12
1.372000e-05
4.282500e+08
8.437500e+08
8.075000e+17
7.515000e+13
1.324000e+14
4.267500e+13
4.565000e+14
6.460000e+14
2.697500e+02
2.705000e+08
7.902500e-01
1.089000e+13
1.534500e+12
5.437500e+08
3.095000e+10
7.660000e-12
1.625000e+08
3.900000e+07
2.602500e+13
3.425000e-06
3.775000e+17
3.457500e-09
1.328500e-03
2.271250e+05
7.405000e+05
9.965000e+11
1.016500e+15
3.250000e-03
4.267500e+13
2.104000e-01
2.251250e-07
2.705000e+08
2.817500e+03
1.775250e+02
1.423250e-08
1.572500e+12
8.885000e-07
3.122500e+09
4.377500e+13
3.732500e-02
9.142500e+14
1.395000e+05
4.305000e+15
9.847500e+02
1.067500e-03
2.399750e+11
2.139000e+14
1.745500e+06
1.139750e-05
3.042500e+08
1.492250e+14
4.327500e+09
2.952500e+02
3.425000e-06
1.517000e+07
7.945000e-02
1.372000e-05
4.237500e+13
1.081250e+10
3.430000e+16
6.877500e+14
3.457500e-09
6.215000e+00
6.195000e+05
1.432750e+08
8.337500e+17
5.892500e-01
1.849250e-10
5.332500e+10
6.932500e+09
5.675000e-01
8.885000e-07
2.787500e+16
2.722500e+15
1.029750e+18
1.029750e+18
4.687500e+08
8.885000e-07
5.397500e+16
3.905000e-11
2.394250e+09
2.017500e-03
1.029000e+14
9.117500e+15
3.035000e+14
4.400000e+00
9.117500e+15
1.016500e+15
1.693750e+14
4.400000e+00
6.725000e+06
3.765000e+17
1.226750e-04
5.607500e+09
2.251250e-07
1.693750e+14
1.834500e+11
4.565000e+14
4.830000e+15
1.285750e+16
1.395750e+12
4.817500e+16
3.090000e+10
4.370000e+11
3.047500e+13
2.705000e+08
1.938000e+04
2.677500e+05
1.572500e+12
4.495000e+09
8.935000e+13
1.218750e-01
1.026250e+11
1.691500e+14
2.782500e+11
4.785000e+14
2.456000e-02
1.659750e+13
1.425250e-03
4.305000e+15
1.787250e-01
1.616250e+10
4.727500e+13
8.107500e-02
1.201500e+11
9.995000e-02
2.324750e+10
8.935000e+13
7.805000e-07
2.218750e+02
2.420000e+11
2.062750e-07
2.398750e+10
1.149750e+17
1.067500e-03
1.017250e+10
9.872500e+04
9.142500e+14
1.468250e+17
3.017500e+17
1.572500e+12
6.905000e+15
5.247500e+13
2.705000e+08
3.425000e-06
1.970500e+10
1.584750e+16
1.587000e-01
1.710250e+09
4.565000e+14
8.982500e+05
1.691500e+14
4.817500e+16
6.387500e+14
1.083250e-01
8.765000e+07
3.905000e-11
5.285000e+18
2.930000e+14
7.530000e+03
1.201500e+11
3.035000e+14
5.190000e-01
2.193500e+06
3.905000e-11
1.903250e+19
3.905000e-11
3.425000e-06
2.502500e-01
1.423250e-08
2.278250e+14
2.323250e-01
9.620000e+03
6.030000e+16
3.457500e-09
1.591500e-05
3.457500e-09
3.457500e-09
4.012500e+12
1.188250e+00
2.180750e-07
8.312500e-10
4.342500e-02
4.035000e-01
1.372000e-05
1.067500e-03
3.157500e+11
2.159750e+17
1.039750e+10
1.849250e-10
1.553250e+10
1.462750e+00
8.080000e-08
1.440750e+16
1.718000e+01
1.572500e+12
4.417500e+01
1.048250e+17
6.012500e+07
7.362500e+18
1.764250e+15
6.890000e+19
2.420000e+11
4.950000e-01
2.251250e-07
8.482500e+03
9.620000e+03
1.980250e+15
4.025000e+11
8.890000e+15
2.157250e+12
2.722500e+15
9.200000e+00
5.575000e-08
2.168500e+00
1.149750e+17
6.905000e-01
7.002500e+18
2.108000e+12
8.312500e-10
4.962500e+07
1.290250e+09
1.305000e+09
1.222500e+15
1.972000e-07
8.440000e+15
1.604000e+18
3.457500e-09
2.722500e+15
4.175000e+16
4.695000e-01
4.175000e+16
2.446000e-02
1.531750e+11
1.957500e+00
1.992750e-02
9.957500e+14
1.206250e+20
6.065000e+11
6.207500e+19
3.985000e-01
4.295000e+09
1.849250e-10
2.251250e-07
1.553250e+10
3.375000e+15
4.417500e+01
2.159750e+17
4.562500e+11
1.432750e+08
1.210500e-05
9.980000e+14
5.675000e-01
3.835000e+17
3.550000e+00
7.552500e+11
3.457500e-09
3.457500e-09
5.142500e+04
5.057500e-08
5.212500e+04
6.600000e-03
1.372000e-05
4.787500e-02
1.218750e-01
1.377000e+14
3.357500e-01
6.332500e+10
1.317500e-08
8.312500e-10
1.553250e+10
1.468250e+17
1.682500e+11
6.767500e+09
2.426000e+09
1.195750e+14
2.552500e+19
1.400750e+09
1.372000e-05
2.160500e+01
4.320000e+14
2.772500e+19
8.337500e+17
6.247500e-03
9.215000e-02
6.067500e+12
5.685000e-02
2.398250e+12
1.022750e-01
1.574750e+10
1.691500e+14
8.075000e+17
4.747500e+12
3.327500e+12
1.409500e-01
4.700000e+15
1.166000e+18
6.662500e+13
3.215000e+17
2.356000e-02
1.849250e-10
8.012500e+16
1.627500e+12
2.139000e+14
5.830000e+09
4.030000e+18
3.392500e+12
7.607500e+14
1.849250e-10
4.175000e+16
5.332500e+10
3.060000e+05
8.312500e-10
6.637500e-08
4.810000e+16
8.437500e+08
1.466000e-01
1.246750e+10
3.882500e+14
2.377500e-02
6.407500e-02
1.128750e+09
4.417500e+01
1.067250e-01
4.780000e+15
2.446000e-02
5.300000e+12
1.073000e+11
5.617500e+11
1.233750e+10
1.397750e-12
1.149750e+17
5.692500e-02
4.237500e+13
1.029750e+18
5.935000e+17
4.305000e+15
1.067500e-03
9.980000e+14
7.530000e+03
2.935000e+20
8.312500e-10
4.335000e+13
1.451750e+14
2.159750e+17
1.574750e+16
3.425000e-06
8.700000e+05
3.425000e-06
1.567000e+15
7.500000e+16
1.285750e+16
2.182250e+09
8.885000e-07
1.171500e+12
5.712500e-08
2.585000e+00
3.547500e+10
2.840000e+11
8.250000e+12
9.272500e+13
2.812500e+04
2.193500e+06
3.425000e-06
1.195750e+14
8.885000e-07
3.060000e+05
9.957500e+14
3.442500e-01
5.712500e-08
3.685000e+08
1.849250e-10
7.515000e+13
4.267500e+13
1.149750e+17
9.692500e+12
1.553250e+10
1.086750e-05
3.327500e+12
1.091000e+19
8.337500e+17
1.372000e-05
3.375000e+15
1.775500e+13
1.195750e+14
9.957500e+14
1.363500e-01
1.574750e+16
1.171500e+12
1.305250e+02
4.295000e+16
6.417500e+11
7.660000e-12
6.417500e+11
2.985000e+15
1.305000e-01
1.462250e+20
1.402500e+15
2.296000e+07
7.775000e-08
5.935000e+17
1.312000e+17
3.142500e+15
1.534500e+12
3.877500e+13
6.527500e-03
1.348250e+20
1.067500e-03
6.915000e+19
6.797500e-03
1.423250e-08
2.502500e-01
5.712500e-08
5.712500e-08
3.250000e-03
7.775000e-08
3.012500e+09
6.027500e-05
4.150000e+03
1.659750e+13
1.400750e+09
1.432000e+15
1.572500e+12
1.779500e+19
3.427500e+15
2.296750e+16
1.067250e-01
3.457500e-09
4.145000e+13
1.067500e-03
1.241000e+14
1.686250e+10
2.750000e+11
8.377500e+13
4.830000e+15
4.057500e+17
1.314250e-08
4.690000e+01
5.347500e+15
1.036750e+07
8.312500e-10
1.517000e+07
9.207500e-02
1.372000e-05
5.255000e+16
9.980000e+14
7.660000e-12
9.142500e+14
1.432000e+15
4.295000e+16
8.312500e-10
4.327500e+09
2.707500e+18
2.055500e+03
7.660000e-12
1.584750e+16
6.662500e+13
1.011500e-01
7.682500e+12
7.500000e+16
1.124250e+00
2.398250e+12
1.351500e-02
1.377000e+14
1.544500e+13
6.767500e+09
7.545000e-07
2.377500e-02
3.012500e+09
5.332500e+10
1.029000e+14
9.300000e+06
2.212250e+17
1.992750e-02
6.767500e+09
7.907500e-10
5.712500e-08
1.067500e-03
6.027500e-05
3.787500e+04
2.128000e+19
1.228500e+04
8.440000e+15
1.201500e+11
3.930000e+07
1.177500e+04
7.235000e+05
1.335500e+13
5.935000e+17
9.142500e+14
6.662500e+12
3.282500e+12
1.423250e-08
1.045250e+11
9.957500e+14
3.835000e+17
3.955000e+02
5.492500e-01
8.150000e+04
4.320000e+11
9.347500e+01
1.167500e-05
1.285750e+16
6.917500e+20
1.572500e+12
1.779500e+19
3.122500e-01
3.425000e-06
2.952500e-01
5.712500e-08
4.780000e+15
3.425000e-06
6.387500e+14
9.080000e+14
6.725000e+06
1.351500e-02
4.817500e+16
6.772500e-01
1.487000e+02
1.029750e+18
5.825000e+06
7.417500e+08
5.000000e+09
1.726000e+02
2.407750e+14
3.385000e-02
2.280000e+15
1.961000e+03
3.012500e+09
1.351500e-02
1.903250e+19
3.457500e-09
3.035000e+14
4.435000e-02
8.312500e-10
6.915000e+19
2.114000e+05
7.660000e-12
3.357500e+05
1.353750e+10
4.342500e-02
1.578000e+12
1.317500e-08
4.780000e+15
2.347500e-01
8.137500e+14
1.764250e+15
1.884250e+09
2.627500e-03
1.440750e+16
1.353750e+10
6.215000e+00
1.625000e+08
1.128750e+09
8.885000e-07
1.409500e-01
4.145000e+13
1.393000e+10
2.647500e+07
7.600000e+13
7.895000e-02
1.195750e+14
4.150000e+03
5.097500e+11
3.425000e-06
3.425000e-06
3.157500e+11
8.295000e-07
1.487000e+02
8.885000e-07
9.720000e+01
5.097500e+11
3.035000e+14
3.452500e-03
5.312500e+04
7.610000e-07
8.075000e+17
4.065000e-01
4.630000e+12
5.712500e-08
2.324750e+10
1.544500e+13
9.117500e+15
6.065000e+11
7.847500e+03
2.212250e+17
1.048250e+17
2.452000e+16
7.660000e-12
2.857500e+12
2.380250e+13
7.455000e-04
7.002500e+18
3.385000e+05
3.425000e-06
5.312500e+04
6.975000e+09
1.128750e+09
8.995000e-04
4.320000e+14
4.747500e+12
3.490000e+10
1.150000e+05
5.892500e+18
5.575000e-08
9.872500e+04
1.456000e+16
2.690000e+12
4.785000e+14
1.067500e-03
3.235000e-01
3.170000e-02
1.849250e-10
8.892500e+09
3.060000e+05
1.312750e-05
2.860000e-06
1.402500e+15
5.830000e+09
6.030000e+06
1.572500e+12
1.042500e+18
3.202500e-01
5.935000e+17
6.682500e+11
1.372000e-05
3.925000e+10
8.700000e+05
3.477500e+19
2.807500e+11
2.144750e+13
1.616250e+10
2.251250e-07
2.377500e-02
4.507500e+12
9.720000e+01
9.212500e+10
1.184750e+15
1.285750e+16
5.407500e+19
1.066500e+01
1.241000e+14
1.574500e+13
3.480000e-03
1.139750e-05
1.567000e+15
2.787500e+16
3.697500e+14
1.042500e+18
4.237500e+13
2.800000e+18
4.370000e+11
1.206250e+20
3.425000e-06
6.460000e+14
3.495000e+10
1.351500e-02
6.912500e+11
2.787500e+16
2.239500e+18
1.574750e+10
3.282500e+20
3.250000e-03
9.117500e+15
3.282500e+12
8.312500e-10
4.327500e+09
3.250000e-03
2.212250e+17
2.882500e-01
1.310250e+17